! HFSS S-parameters converted from .matrix format
! 8-port network, 101 frequency points
# GHz S RI R 50.0
15.000000000 -1.848485012333e-04 1.535163423620e-04 1.308560239841e-05 1.541632574969e-05 -6.463361011082e-05 -1.680022281897e-04 2.575896622643e-06 4.087245938197e-05 1.858165069140e-05 -6.205651003385e-07 -6.377975406653e-05 2.485224474455e-05 4.234452852087e-01 5.660584149897e-01 -4.238211462785e-01 -5.657737611506e-01 1.308560239824e-05 1.541632574940e-05 -1.123976545213e-01 1.779301132554e-04 8.915804982699e-04 1.041405382720e-03 -2.313330936543e-05 1.158507724187e-05 3.190036189070e-05 2.335238745203e-05 -1.080851030772e-04 1.359006952212e-06 1.129144160649e-04 -2.235832232957e-04 1.163389809852e-04 -1.966101153289e-04 -6.463361011188e-05 -1.680022281893e-04 8.915804982705e-04 1.041405382721e-03 -1.762073890224e-02 2.330471388997e-05 -4.051329031569e-06 -3.611787536735e-06 -5.956876695302e-06 -5.292157517832e-05 7.695287556635e-05 2.845613310042e-07 1.077725001693e-05 1.601716884016e-04 -5.719276284492e-05 -8.490271605104e-05 2.575896622375e-06 4.087245938180e-05 -2.313330936417e-05 1.158507724188e-05 -4.051329031733e-06 -3.611787536033e-06 -1.806446173053e-02 -1.448387891486e-03 -4.941593155354e-03 8.543972476153e-03 2.302183475199e-05 1.113887625885e-05 -1.767135398477e-02 4.090091785018e-02 -1.761308551007e-02 4.095770855073e-02 1.858165069139e-05 -6.205650995009e-07 3.190036189080e-05 2.335238745236e-05 -5.956876695310e-06 -5.292157517841e-05 -4.941593155354e-03 8.543972476152e-03 6.177425719211e-03 1.590341042255e-02 3.397822737559e-05 -1.956935363192e-05 1.132128795008e-01 5.979550893858e-02 1.132652865354e-01 5.970729124797e-02 -6.377975406670e-05 2.485224474406e-05 -1.080851030769e-04 1.359006952097e-06 7.695287556585e-05 2.845613306929e-07 2.302183475194e-05 1.113887625867e-05 3.397822737555e-05 -1.956935363243e-05 -8.648534035730e-05 -6.604368638541e-05 6.835621654332e-05 -2.134664986553e-04 1.581143467198e-04 -2.382484875413e-04 4.234452852087e-01 5.660584149897e-01 1.129144160649e-04 -2.235832232954e-04 1.077725001757e-05 1.601716884018e-04 -1.767135398477e-02 4.090091785018e-02 1.132128795008e-01 5.979550893858e-02 6.835621654284e-05 -2.134664986550e-04 4.185073678550e-01 -2.723962561867e-01 4.185177319279e-01 -2.728191944834e-01 -4.238211462785e-01 -5.657737611506e-01 1.163389809852e-04 -1.966101153290e-04 -5.719276284565e-05 -8.490271605143e-05 -1.761308551007e-02 4.095770855073e-02 1.132652865354e-01 5.970729124797e-02 1.581143467200e-04 -2.382484875416e-04 4.185177319279e-01 -2.728191944834e-01 4.181467785364e-01 -2.729527664363e-01
15.050000000 -1.841050610688e-04 1.554239616016e-04 1.344545154762e-05 1.556357732014e-05 -6.804468024358e-05 -1.734827697529e-04 2.846986230621e-06 4.122103061727e-05 1.852009837768e-05 -2.531017244449e-07 -6.462001908430e-05 2.484777311099e-05 4.372545631933e-01 5.554629695857e-01 -4.376266460594e-01 -5.551622366407e-01 1.344545154757e-05 1.556357732046e-05 -1.209985994588e-01 1.996911888826e-04 9.548853705598e-04 1.116969870483e-03 -2.249650252894e-05 1.188289034797e-05 3.306885352243e-05 2.391880515021e-05 -1.097251247893e-04 1.443137418824e-06 1.113154473625e-04 -2.304769176964e-04 1.153767893191e-04 -2.031581023570e-04 -6.804468024290e-05 -1.734827697516e-04 9.548853705599e-04 1.116969870483e-03 -2.022501671005e-02 2.979449413738e-05 -4.158019152121e-06 -3.747897200657e-06 -6.153936879886e-06 -5.593659360476e-05 8.041955930571e-05 3.011364693775e-07 1.443968483332e-05 1.650745696613e-04 -6.055957219189e-05 -8.732562165559e-05 2.846986229952e-06 4.122103061657e-05 -2.249650252821e-05 1.188289034827e-05 -4.158019151981e-06 -3.747897200690e-06 -1.868690565837e-02 -1.447245027425e-03 -5.018510040861e-03 8.822470965419e-03 2.293684565168e-05 1.154951224045e-05 -1.698096871187e-02 4.136709887068e-02 -1.692097449996e-02 4.142361906159e-02 1.852009837590e-05 -2.531017249716e-07 3.306885352224e-05 2.391880515003e-05 -6.153936879079e-06 -5.593659360370e-05 -5.018510040861e-03 8.822470965420e-03 6.599351862682e-03 1.638531413945e-02 3.571158013623e-05 -2.016790636308e-05 1.159598687658e-01 5.866905653189e-02 1.160118707756e-01 5.857747393561e-02 -6.462001908418e-05 2.484777311165e-05 -1.097251247895e-04 1.443137418894e-06 8.041955930577e-05 3.011364691202e-07 2.293684565185e-05 1.154951224033e-05 3.571158013597e-05 -2.016790636308e-05 -3.669561408700e-05 -6.884752253456e-05 6.832416542896e-05 -2.225425556374e-04 1.583314707185e-04 -2.502735267213e-04 4.372545631933e-01 5.554629695857e-01 1.113154473628e-04 -2.304769176966e-04 1.443968483376e-05 1.650745696609e-04 -1.698096871187e-02 4.136709887068e-02 1.159598687658e-01 5.866905653190e-02 6.832416542946e-05 -2.225425556376e-04 4.086002510812e-01 -2.870396503212e-01 4.085944455320e-01 -2.874697971516e-01 -4.376266460594e-01 -5.551622366407e-01 1.153767893192e-04 -2.031581023573e-04 -6.055957219244e-05 -8.732562165521e-05 -1.692097449996e-02 4.142361906159e-02 1.160118707756e-01 5.857747393561e-02 1.583314707182e-04 -2.502735267207e-04 4.085944455320e-01 -2.874697971516e-01 4.082184159464e-01 -2.875937210474e-01
15.100000000 -1.832602808437e-04 1.571973044193e-04 1.382047406405e-05 1.570121353979e-05 -7.169493675965e-05 -1.793565275663e-04 3.124123843909e-06 4.157346212077e-05 1.845005111326e-05 1.442655566298e-07 -6.548706034498e-05 2.481356465706e-05 4.507823049456e-01 5.445444512849e-01 -4.511500030289e-01 -5.442275930377e-01 1.382047243292e-05 1.570121530436e-05 -1.306422700060e-01 2.252895979852e-04 1.024192520665e-03 1.199822965010e-03 -2.177578549185e-05 1.219026698418e-05 3.429315499101e-05 2.450967458645e-05 -1.113776446111e-04 1.531635158630e-06 1.095770855306e-04 -2.375417520895e-04 1.142868519101e-04 -2.098921766784e-04 -7.169493694062e-05 -1.793565275781e-04 1.024192520552e-03 1.199822965084e-03 -2.333783885517e-02 3.811526399438e-05 -4.284873227585e-06 -3.892766887162e-06 -6.362171068881e-06 -5.916830869540e-05 8.414451824695e-05 3.158508850904e-07 1.836038424569e-05 1.702485850726e-04 -6.415777134266e-05 -8.992044905314e-05 3.124129920705e-06 4.157345634491e-05 -2.177578525316e-05 1.219026695472e-05 -4.284875117603e-06 -3.892766788634e-06 -1.933979640465e-02 -1.445518588213e-03 -5.096628555184e-03 9.112344584218e-03 2.288909735691e-05 1.198741444029e-05 -1.627723471493e-02 4.182075733138e-02 -1.621550522413e-02 4.187697726791e-02 1.845005110088e-05 1.442657120562e-07 3.429315501159e-05 2.450967542836e-05 -6.362171029786e-06 -5.916830872486e-05 -5.096628555087e-03 9.112344582150e-03 7.046893753512e-03 1.688664675592e-02 3.757173176847e-05 -2.075925929511e-05 1.187461839237e-01 5.748093210477e-02 1.187976970045e-01 5.738590486160e-02 -6.548705690154e-05 2.481356190293e-05 -1.113776447264e-04 1.531635161279e-06 8.414451717085e-05 3.158508543677e-07 2.288909739577e-05 1.198741440716e-05 3.757173161569e-05 -2.075925826250e-05 1.636387202488e-05 -7.184831380875e-05 6.823491746985e-05 -2.321909957897e-04 1.583998934658e-04 -2.629520471598e-04 4.507823049463e-01 5.445444512863e-01 1.095770870688e-04 -2.375417518333e-04 1.836038445913e-05 1.702485846880e-04 -1.627723472027e-02 4.182075733029e-02 1.187461839237e-01 5.748093210469e-02 6.823491472976e-05 -2.321909966770e-04 3.981595385725e-01 -3.013513773235e-01 3.981369577186e-01 -3.017880691690e-01 -4.511500030289e-01 -5.442275930371e-01 1.142868500675e-04 -2.098921760968e-04 -6.415777130500e-05 -8.992044926133e-05 -1.621550521761e-02 4.187697726626e-02 1.187976970043e-01 5.738590486165e-02 1.583998969626e-04 -2.629520476830e-04 3.981369577180e-01 -3.017880691677e-01 3.977562360030e-01 -3.019022486780e-01
15.150000000 -1.823162059840e-04 1.588253938925e-04 1.421088954135e-05 1.582705318690e-05 -7.561077759572e-05 -1.856699591930e-04 3.407771391152e-06 4.192997333267e-05 1.837141681127e-05 5.726400234876e-07 -6.638309090369e-05 2.474668268622e-05 4.640215504170e-01 5.333104966146e-01 -4.643842512481e-01 -5.329774896926e-01 1.421088965039e-05 1.582705319719e-05 -1.415200024943e-01 2.556977567613e-04 1.100209030527e-03 1.290834840738e-03 -2.096418992468e-05 1.250691762180e-05 3.557501458237e-05 2.512524895197e-05 -1.130359627663e-04 1.624883555009e-06 1.076869547981e-04 -2.447710173172e-04 1.130562952735e-04 -2.168083706601e-04 -7.561077778502e-05 -1.856699591966e-04 1.100209030528e-03 1.290834840738e-03 -2.709027783958e-02 4.889575938154e-05 -4.434258714769e-06 -4.047243567769e-06 -6.582598505401e-06 -6.264005360148e-05 8.815830345315e-05 3.282558750570e-07 2.256832784179e-05 1.757239876481e-04 -6.801469488985e-05 -9.270864178185e-05 3.407771629426e-06 4.192997337531e-05 -2.096418993539e-05 1.250691759777e-05 -4.434258738923e-06 -4.047243614396e-06 -2.002506729281e-02 -1.443165362568e-03 -5.175926444925e-03 9.414164157521e-03 2.288363285703e-05 1.245502725950e-05 -1.556019719862e-02 4.226129327637e-02 -1.549672349652e-02 4.231718321931e-02 1.837141694312e-05 5.726396294747e-07 3.557501450944e-05 2.512524897774e-05 -6.582598648451e-06 -6.264005354483e-05 -5.175926444932e-03 9.414164157523e-03 7.521886078085e-03 1.740838572596e-02 3.957131513832e-05 -2.134179121199e-05 1.215724357214e-01 5.622887829951e-02 1.216233721160e-01 5.613032615938e-02 -6.638309087824e-05 2.474668268973e-05 -1.130359627660e-04 1.624883555260e-06 8.815830345348e-05 3.282558750927e-07 2.288363285490e-05 1.245502725463e-05 3.957131512375e-05 -2.134179120623e-05 7.301529664736e-05 -7.506534636649e-05 6.808016623412e-05 -2.424649169442e-04 1.583054950402e-04 -2.763395124320e-04 4.640215504169e-01 5.333104966132e-01 1.076869544979e-04 -2.447710167760e-04 2.256832749034e-05 1.757239885352e-04 -1.556019719874e-02 4.226129327643e-02 1.215724357213e-01 5.622887829964e-02 6.808016626871e-05 -2.424649170312e-04 3.871940700285e-01 -3.153127427279e-01 3.871541270438e-01 -3.157552737459e-01 -4.643842512496e-01 -5.329774896955e-01 1.130562950858e-04 -2.168083702271e-04 -6.801469542163e-05 -9.270864069675e-05 -1.549672349646e-02 4.231718321938e-02 1.216233721162e-01 5.613032615928e-02 1.583054951031e-04 -2.763395125440e-04 3.871541270453e-01 -3.157552737487e-01 3.867690997092e-01 -3.158596336605e-01
15.200000000 -1.812754972863e-04 1.602970229744e-04 1.461666214296e-05 1.593829152971e-05 -7.982273114413e-05 -1.924768454599e-04 3.698386306507e-06 4.229082094441e-05 1.828409386736e-05 1.033150830227e-06 -6.731061951962e-05 2.464383824946e-05 4.769655388208e-01 5.217688715473e-01 -4.773226250575e-01 -5.214197157520e-01 1.461665772729e-05 1.593829566931e-05 -1.538742351349e-01 2.922325980565e-04 1.183725747553e-03 1.390981436808e-03 -2.005409153816e-05 1.283222259460e-05 3.691544039743e-05 2.576519136729e-05 -1.146903546898e-04 1.723299094631e-06 1.056304175595e-04 -2.521513758155e-04 1.116697688873e-04 -2.238970335026e-04 -7.982273115654e-05 -1.924768454624e-04 1.183725747259e-03 1.390981436936e-03 -3.165787411861e-02 6.303730381060e-05 -4.608867443833e-06 -4.212292155731e-06 -6.816369616700e-06 -6.637876155688e-05 9.249654493314e-05 3.377931049145e-07 2.709718453906e-05 1.815355450363e-04 -7.216201540624e-05 -9.571503369465e-05 3.698386306768e-06 4.229082094441e-05 -2.005409225469e-05 1.283222257105e-05 -4.608867444780e-06 -4.212292157229e-06 -2.074480655752e-02 -1.440139276886e-03 -5.256375535297e-03 9.728535053463e-03 2.292618614828e-05 1.295508893407e-05 -1.482991604568e-02 4.268807731961e-02 -1.476468981243e-02 4.274360756625e-02 1.828409386743e-05 1.033150830179e-06 3.691544017437e-05 2.576519315269e-05 -6.816369620211e-06 -6.637876155487e-05 -5.256375535297e-03 9.728535053462e-03 8.026320428037e-03 1.795156839468e-02 4.172461258129e-05 -2.191366761239e-05 1.244392443391e-01 5.491052891166e-02 1.244895123045e-01 5.480837112916e-02 -6.731061161065e-05 2.464383257801e-05 -1.146903546417e-04 1.723299094186e-06 9.249654228360e-05 3.377929333735e-07 2.292618556998e-05 1.295508877339e-05 4.172461189354e-05 -2.191366534168e-05 1.336224623304e-04 -7.852049024749e-05 6.785040674898e-05 -2.534240203593e-04 1.580324191927e-04 -2.904983322909e-04 4.769655388208e-01 5.217688715473e-01 1.056304209577e-04 -2.521513741524e-04 2.709718453995e-05 1.815355450444e-04 -1.482991604568e-02 4.268807731961e-02 1.244392443391e-01 5.491052891166e-02 6.785040163637e-05 -2.534240237393e-04 3.757132010395e-01 -3.289051947282e-01 3.756553302083e-01 -3.293528167603e-01 -4.773226250575e-01 -5.214197157520e-01 1.116697637586e-04 -2.238970309394e-04 -7.216201541688e-05 -9.571503369924e-05 -1.476468981242e-02 4.274360756625e-02 1.244895123045e-01 5.480837112916e-02 1.580324278219e-04 -2.904983352145e-04 3.756553302083e-01 -3.293528167603e-01 3.752663849357e-01 -3.294473030401e-01
15.250000000 -1.801414567882e-04 1.616007844192e-04 1.503728636843e-05 1.603129340266e-05 -8.436618890701e-05 -1.998394818357e-04 3.996481162807e-06 4.265624069879e-05 1.818796839094e-05 1.526961890124e-06 -6.827246832672e-05 2.450135286934e-05 4.896077105234e-01 5.099274668637e-01 -4.899585609740e-01 -5.095621854036e-01 1.503728639966e-05 1.603129353567e-05 -1.680176707303e-01 3.367215921967e-04 1.275614038695e-03 1.501342385772e-03 -1.903712879623e-05 1.316505221896e-05 3.831416619448e-05 2.642821213008e-05 -1.163267879533e-04 1.827302744616e-06 1.033897993003e-04 -2.596592541068e-04 1.101085460223e-04 -2.311396451482e-04 -8.436618506617e-05 -1.998394861428e-04 1.275614038778e-03 1.501342385776e-03 -3.728037730396e-02 8.186465482487e-05 -4.811792628730e-06 -4.389009402423e-06 -7.064777223554e-06 -7.041558572391e-05 9.720090219245e-05 3.437653804503e-07 3.198623034702e-05 1.877231588944e-04 -7.663648111477e-05 -9.896841868376e-05 3.996482053360e-06 4.265624000608e-05 -1.903712873718e-05 1.316505221866e-05 -4.811792741350e-06 -4.389009352131e-06 -2.150127259881e-02 -1.436391174268e-03 -5.337940940262e-03 1.005609964331e-02 2.302339086730e-05 1.349068753422e-05 -1.408646728102e-02 4.310044863294e-02 -1.401948081329e-02 4.315558954875e-02 1.818796664616e-05 1.526959386067e-06 3.831416618978e-05 2.642821203212e-05 -7.064777059967e-06 -7.041558579906e-05 -5.337940940355e-03 1.005609964319e-02 8.562361286882e-03 1.851729633710e-02 4.404781579559e-05 -2.247280282072e-05 1.273472388758e-01 5.352340189607e-02 1.273967425400e-01 5.341755724299e-02 -6.827246789098e-05 2.450135247871e-05 -1.163267879893e-04 1.827302745572e-06 9.720090206425e-05 3.437653793483e-07 2.302339088977e-05 1.349068753919e-05 4.404781580639e-05 -2.247280277763e-05 1.985975501463e-04 -8.223859959847e-05 6.753469342255e-05 -2.651357242752e-04 1.575628596658e-04 -3.054989766836e-04 4.896077105238e-01 5.099274668617e-01 1.033897993678e-04 -2.596592541160e-04 3.198622652388e-05 1.877231574132e-04 -1.408646728183e-02 4.310044863300e-02 1.273472388756e-01 5.352340189817e-02 6.753469301062e-05 -2.651357241448e-04 3.637267983402e-01 -3.421103299073e-01 3.636504573428e-01 -3.425622525786e-01 -4.899585609763e-01 -5.095621854085e-01 1.101085459811e-04 -2.311396451289e-04 -7.663647658508e-05 -9.896841958466e-05 -1.401948081250e-02 4.315558954881e-02 1.273967425403e-01 5.341755724081e-02 1.575628600404e-04 -3.054989766227e-04 3.636504573439e-01 -3.425622525831e-01 3.632579817137e-01 -3.426468323486e-01
15.300000000 -1.789180710064e-04 1.627251145878e-04 1.547154468952e-05 1.610116420000e-05 -8.928204542957e-05 -2.078298452395e-04 4.302601743495e-06 4.302647183426e-05 1.808290143946e-05 2.055253089435e-06 -6.927186949024e-05 2.431504148921e-05 5.019417088123e-01 4.977942934370e-01 -5.022856995316e-01 -4.974129331867e-01 1.547154468962e-05 1.610116420010e-05 -1.843622478080e-01 3.917753478807e-04 1.376806224338e-03 1.623080245219e-03 -1.790413146239e-05 1.350347452110e-05 3.976875543373e-05 2.711147302095e-05 -1.179243862740e-04 1.937312974758e-06 1.009431881429e-04 -2.672549473307e-04 1.083491190128e-04 -2.385035864091e-04 -8.928204542786e-05 -2.078298452407e-04 1.376806224339e-03 1.623080245220e-03 -4.429289312537e-02 1.073836838686e-04 -5.046585599585e-06 -4.578631046489e-06 -7.329246659336e-06 -7.478652745015e-05 1.023200319565e-04 3.452905950009e-07 3.728144812632e-05 1.943321815573e-04 -8.148069058767e-05 -1.025021195249e-04 4.302601745015e-06 4.302647183316e-05 -1.790413146310e-05 1.350347452113e-05 -5.046585603615e-06 -4.578631047257e-06 -2.229691105229e-02 -1.431868598710e-03 -5.420580212844e-03 1.039753997494e-02 2.318280807343e-05 1.406530584163e-05 -1.332994484543e-02 4.349771281919e-02 -1.326119106038e-02 4.355243486929e-02 1.808290143815e-05 2.055253087578e-06 3.976875543407e-05 2.711147302178e-05 -7.329246660252e-06 -7.478652744581e-05 -5.420580212843e-03 1.039753997494e-02 9.132363952108e-03 1.910674008673e-02 4.655936340285e-05 -2.301677958851e-05 1.302970567220e-01 5.206489185016e-02 1.303456959292e-01 5.195527862860e-02 -6.927186949019e-05 2.431504148872e-05 -1.179243862733e-04 1.937312974781e-06 1.023200319544e-04 3.452905951514e-07 2.318280807370e-05 1.406530584165e-05 4.655936340311e-05 -2.301677958921e-05 2.684094079396e-04 -8.624797674120e-05 6.712045806967e-05 -2.776763563522e-04 1.568766312250e-04 -3.214213574972e-04 5.019417088123e-01 4.977942934370e-01 1.009431881428e-04 -2.672549473308e-04 3.728144812443e-05 1.943321815583e-04 -1.332994484544e-02 4.349771281919e-02 1.302970567220e-01 5.206489185016e-02 6.712045806926e-05 -2.776763563520e-04 3.512452348975e-01 -3.549098981868e-01 3.511499071228e-01 -3.553652891131e-01 -5.022856995316e-01 -4.974129331867e-01 1.083491190130e-04 -2.385035864087e-04 -8.148069058676e-05 -1.025021195242e-04 -1.326119106038e-02 4.355243486929e-02 1.303456959292e-01 5.195527862860e-02 1.568766312251e-04 -3.214213574974e-04 3.511499071228e-01 -3.553652891131e-01 3.507542872924e-01 -3.554399504948e-01
15.350000000 -1.776100203857e-04 1.636583269901e-04 1.591694769388e-05 1.614117783279e-05 -9.461733237089e-05 -2.165301508605e-04 4.617323809830e-06 4.340175762634e-05 1.796874109246e-05 2.619254972298e-06 -7.031244920880e-05 2.408011105137e-05 5.139613816108e-01 4.853774775461e-01 -5.142978869913e-01 -4.849801091680e-01 1.591694770141e-05 1.614117780047e-05 -2.034646457967e-01 4.612568423243e-04 1.488240260321e-03 1.757378609195e-03 -1.664504329933e-05 1.384426078280e-05 4.127305244265e-05 2.780957803301e-05 -1.194516419884e-04 2.053676199067e-06 9.826249656368e-05 -2.748726394841e-04 1.063609085878e-04 -2.459332462263e-04 -9.461733230259e-05 -2.165301510179e-04 1.488240260311e-03 1.757378609225e-03 -5.317698689406e-02 1.427429285929e-04 -5.317311875069e-06 -4.782527478815e-06 -7.611310081031e-06 -7.953289211009e-05 1.079104233515e-04 3.412437662594e-07 4.303660259892e-05 2.014133401445e-04 -8.674364364318e-05 -1.063542571784e-04 4.617323814872e-06 4.340175759932e-05 -1.664504330126e-05 1.384426079195e-05 -5.317311871867e-06 -4.782527478089e-06 -2.313437391479e-02 -1.426515538021e-03 -5.504242346644e-03 1.075358065512e-02 2.341311931675e-05 1.468288684807e-05 -1.256046242028e-02 4.387913953345e-02 -1.248993485999e-02 4.393341331313e-02 1.796874106756e-05 2.619254956452e-06 4.127305244511e-05 2.780957802895e-05 -7.611310085237e-06 -7.953289212195e-05 -5.504242346646e-03 1.075358065512e-02 9.738894649742e-03 1.972114423818e-02 4.928033591972e-05 -2.354287188684e-05 1.332893427394e-01 5.053226182059e-02 1.333370128732e-01 5.041879787197e-02 -7.031244921385e-05 2.408011105682e-05 -1.194516419913e-04 2.053676203258e-06 1.079104233449e-04 3.412437814378e-07 2.341311931525e-05 1.468288685227e-05 4.928033592141e-05 -2.354287188678e-05 3.435934816902e-04 -9.058105626080e-05 6.659320653285e-05 -2.911327628358e-04 1.559507718406e-04 -3.383564646306e-04 5.139613816108e-01 4.853774775461e-01 9.826249654460e-05 -2.748726394726e-04 4.303660248577e-05 2.014133401865e-04 -1.256046242029e-02 4.387913953346e-02 1.332893427394e-01 5.053226182061e-02 6.659320653711e-05 -2.911327628364e-04 3.382793847498e-01 -3.672858068395e-01 3.381645816359e-01 -3.677437919189e-01 -5.142978869913e-01 -4.849801091680e-01 1.063609086074e-04 -2.459332462394e-04 -8.674364353135e-05 -1.063542572297e-04 -1.248993485997e-02 4.393341331312e-02 1.333370128732e-01 5.041879787195e-02 1.559507718355e-04 -3.383564646304e-04 3.381645816359e-01 -3.677437919189e-01 3.377662010318e-01 -3.678085438239e-01
15.400000000 -1.762227317101e-04 1.643886728396e-04 1.636882648952e-05 1.614171695057e-05 -1.004248384544e-04 -2.260318226378e-04 4.941265257091e-06 4.378233671097e-05 1.784529466689e-05 3.220220780621e-06 -7.139840731800e-05 2.379112644338e-05 5.256607830682e-01 4.726852561288e-01 -5.259891769916e-01 -4.722719741936e-01 1.636882654345e-05 1.614171690131e-05 -2.261011718190e-01 5.511371242877e-04 1.610725444946e-03 1.905288914321e-03 -1.524885685147e-05 1.418200838515e-05 4.281438503731e-05 2.851277607483e-05 -1.208597160131e-04 2.176513924288e-06 9.531015505725e-05 -2.824026857853e-04 1.041023159339e-04 -2.533341687933e-04 -1.004248394443e-04 -2.260318224664e-04 1.610725444946e-03 1.905288914321e-03 -6.464862253045e-02 1.931097203378e-04 -5.628580422224e-06 -5.002147500677e-06 -7.912475780967e-06 -8.470107898651e-05 1.140364736962e-04 3.301862905507e-07 4.931408062938e-05 2.090206209647e-04 -9.248058574686e-05 -1.105673021535e-04 4.941265012064e-06 4.378233670381e-05 -1.524885682510e-05 1.418200841897e-05 -5.628580401357e-06 -5.002147456424e-06 -2.401654102926e-02 -1.420272161485e-03 -5.588866677152e-03 1.112499198029e-02 2.372443083365e-05 1.534792956823e-05 -1.177815555930e-02 4.424395990501e-02 -1.170584839689e-02 4.429775617131e-02 1.784529464106e-05 3.220221340655e-06 4.281438514958e-05 2.851277600282e-05 -7.912475635182e-06 -8.470107904349e-05 -5.588866677100e-03 1.112499198026e-02 1.038475316657e-02 2.036183300536e-02 5.223492373802e-05 -2.404791418858e-05 1.363247482570e-01 4.892263444769e-02 1.363713400465e-01 4.880523716762e-02 -7.139840789792e-05 2.379112713259e-05 -1.208597152816e-04 2.176514020503e-06 1.140364739297e-04 3.301864817681e-07 2.372443174574e-05 1.534792956969e-05 5.223492372256e-05 -2.404791498316e-05 4.247637089040e-04 -9.527517017044e-05 6.593611345143e-05 -3.056041788449e-04 1.547590902448e-04 -3.564083506329e-04 5.256607830709e-01 4.726852561311e-01 9.531015523934e-05 -2.824026865516e-04 4.931408147003e-05 2.090206195103e-04 -1.177815555906e-02 4.424395990464e-02 1.363247482570e-01 4.892263444743e-02 6.593611388813e-05 -3.056041782869e-04 3.248406176771e-01 -3.792201235343e-01 3.247058810788e-01 -3.796797873545e-01 -5.259891769948e-01 -4.722719741957e-01 1.041023161255e-04 -2.533341696616e-04 -9.248058578730e-05 -1.105673024950e-04 -1.170584839686e-02 4.429775617115e-02 1.363713400470e-01 4.880523716782e-02 1.547590894434e-04 -3.564083503676e-04 3.247058810778e-01 -3.796797873549e-01 3.243051190561e-01 -3.797346590980e-01
15.450000000 -1.747624220738e-04 1.649044103132e-04 1.681853577966e-05 1.608839904903e-05 -1.067603991057e-04 -2.364293801665e-04 5.275083012608e-06 4.416844550212e-05 1.771232293268e-05 3.859445919365e-06 -7.253457633926e-05 2.344181847114e-05 5.370341750764e-01 4.597259720514e-01 -5.373538320980e-01 -4.592968950596e-01 1.681853600647e-05 1.608839904437e-05 -2.533984000553e-01 6.711730721508e-04 1.744627068925e-03 2.067367927068e-03 -1.370358223758e-05 1.450748802231e-05 4.436821569484e-05 2.920358208287e-05 -1.220695915857e-04 2.305416709711e-06 9.203307274217e-05 -2.896581952915e-04 1.015134471928e-04 -2.605430402195e-04 -1.067603981597e-04 -2.364293802254e-04 1.744627068925e-03 2.067367927068e-03 -7.981876062309e-02 2.674588898489e-04 -5.985439524242e-06 -5.238840256569e-06 -8.233869699734e-06 -9.034034860040e-05 1.207680037213e-04 3.102791846734e-07 5.618449433168e-05 2.172044750282e-04 -9.875051440269e-05 -1.151853166311e-04 5.275083222592e-06 4.416844549217e-05 -1.370358224440e-05 1.450748800885e-05 -5.985439555272e-06 -5.238840310177e-06 -2.494654427224e-02 -1.413074528544e-03 -5.674381628008e-03 1.151259332956e-02 2.412846204335e-05 1.606557744586e-05 -1.098318402061e-02 4.459136371757e-02 -1.090909206905e-02 4.464465342191e-02 1.771232291877e-05 3.859445916155e-06 4.436821565075e-05 2.920358210144e-05 -8.233869878169e-06 -9.034034851471e-05 -5.674381628048e-03 1.151259332958e-02 1.107299836797e-02 2.103021624929e-02 5.545102214857e-05 -2.452826577129e-05 1.394039298295e-01 4.723298232398e-02 1.394493291263e-01 4.711156868382e-02 -7.253457624038e-05 2.344181845927e-05 -1.220695915857e-04 2.305416709736e-06 1.207680037218e-04 3.102791851587e-07 2.412846204750e-05 1.606557745145e-05 5.545102216698e-05 -2.452826578067e-05 5.126273963326e-04 -1.003734773058e-04 6.512962242852e-05 -3.212044968242e-04 1.532714888386e-04 -3.756965833741e-04 5.370341750753e-01 4.597259720505e-01 9.203307251131e-05 -2.896581949166e-04 5.618449343633e-05 2.172044766272e-04 -1.098318402079e-02 4.459136371784e-02 1.394039298292e-01 4.723298232386e-02 6.512962234299e-05 -3.212044966503e-04 3.109407936461e-01 -3.906950782206e-01 3.107856982285e-01 -3.911554645983e-01 -5.373538320980e-01 -4.592968950595e-01 1.015134472019e-04 -2.605430400587e-04 -9.875051433687e-05 -1.151853159641e-04 -1.090909206904e-02 4.464465342206e-02 1.394493291264e-01 4.711156868382e-02 1.532714888496e-04 -3.756965833049e-04 3.107856982292e-01 -3.911554645990e-01 3.103829287192e-01 -3.912005053804e-01
15.500000000 -1.732361308815e-04 1.651938704769e-04 1.724972049634e-05 1.595840481500e-05 -1.136730246150e-04 -2.478000571267e-04 5.619475820162e-06 4.456031682356e-05 1.756951394676e-05 4.538275439951e-06 -7.372656218320e-05 2.302490826625e-05 5.480760287050e-01 4.465080692873e-01 -5.483863252630e-01 -4.460633396361e-01 1.724972049616e-05 1.595840481517e-05 -2.870788822783e-01 8.385209590021e-04 1.889109084473e-03 2.242804415506e-03 -1.199630495552e-05 1.480427185279e-05 4.588709635563e-05 2.984991189819e-05 -1.229462239257e-04 2.438698974126e-06 8.835062180325e-05 -2.963068007119e-04 9.850152259369e-05 -2.672661859119e-04 -1.136730246142e-04 -2.478000571267e-04 1.889109084472e-03 2.242804415506e-03 -1.005099953355e-01 3.825861737393e-04 -6.392857724611e-06 -5.493342985845e-06 -8.575252660219e-06 -9.649449722623e-05 1.281751029157e-04 2.790675667180e-07 6.372178293695e-05 2.259919095435e-04 -1.056068745096e-04 -1.202445599678e-04 5.619475819989e-06 4.456031682364e-05 -1.199630495489e-05 1.480427185275e-05 -6.392857724405e-06 -5.493342986098e-06 -2.592779483441e-02 -1.404854260420e-03 -5.760703271796e-03 1.191725683203e-02 2.463888011092e-05 1.684174295682e-05 -1.017573431484e-02 4.492049624732e-02 -1.009985303499e-02 4.497325056578e-02 1.756951394711e-05 4.538275439432e-06 4.588709635564e-05 2.984991189846e-05 -8.575252660473e-06 -9.649449722543e-05 -5.760703271796e-03 1.191725683203e-02 1.180697701986e-02 2.172779601816e-02 5.896095313047e-05 -2.497971413780e-05 1.425275477001e-01 4.546011748431e-02 1.425716352043e-01 4.533460406353e-02 -7.372656218358e-05 2.302490826588e-05 -1.229462239264e-04 2.438698974229e-06 1.281751029155e-04 2.790675668911e-07 2.463888011114e-05 1.684174295664e-05 5.896095313059e-05 -2.497971413828e-05 6.080034124987e-04 -1.059261562488e-04 6.415090033727e-05 -3.380650845277e-04 1.514531942396e-04 -3.963592626967e-04 5.480760287050e-01 4.465080692873e-01 8.835062180348e-05 -2.963068007123e-04 6.372178293752e-05 2.259919095432e-04 -1.017573431484e-02 4.492049624732e-02 1.425275477001e-01 4.546011748431e-02 6.415090033728e-05 -3.380650845274e-04 2.965922570390e-01 -4.016930637969e-01 2.964164126922e-01 -4.021531764215e-01 -5.483863252630e-01 -4.460633396361e-01 9.850152259357e-05 -2.672661859119e-04 -1.056068745091e-04 -1.202445599676e-04 -1.009985303499e-02 4.497325056578e-02 1.425716352043e-01 4.533460406353e-02 1.514531942397e-04 -3.963592626968e-04 2.964164126922e-01 -4.021531764215e-01 2.960120028536e-01 -4.021884546578e-01